# Makefile to compile school executable
CC = gcc
SRC = main.c school.c
NAME = school
RM := rm -f
CFLAGS = -Wall -Werror -Wextra -pedantic

all: ${OBJ}
	${CC} ${OBJ} -o ${NAME}

main.o : school.o.c ${CC} -c -o $@ $<

# cleans temporary files and executable
clean:
	${RM} *~ ${NAME}

# cleans object files
oclean:
	${RM} ${OBJ}

# cleans object files, source files, and temporary files
fclean: clean oclean

# Forces recompilation of all object files
re: fclean all
